
  ___ ___ ___ _ _ _  
 |   |   |_  | | | | 
 | | | | | . | | | | 
 |__ |  _|___|_____|  24.6.0
 |___|_|             

User:   vi@vi-clevo
Date:   Thu Oct 31 10:37:04 2024
Arch:   x86_64
Pid:    17879
CWD:    /mnt/c/Users/vi/Desktop/Jellium/Pore/MOF-SJM
Python: 3.12.3
gpaw:   /home/vi/miniconda3/envs/gpaw24/lib/python3.12/site-packages/gpaw
_gpaw:  /home/vi/miniconda3/envs/gpaw24/lib/python3.12/site-packages/
        _gpaw.cpython-312-x86_64-linux-gnu.so
ase:    /home/vi/miniconda3/envs/gpaw24/lib/python3.12/site-packages/ase (version 3.23.0)
numpy:  /home/vi/miniconda3/envs/gpaw24/lib/python3.12/site-packages/numpy (version 1.26.4)
scipy:  /home/vi/miniconda3/envs/gpaw24/lib/python3.12/site-packages/scipy (version 1.13.1)
libxc:  6.2.2
units:  Angstrom and eV
cores: 4
OpenMP: True
OMP_NUM_THREADS: 1

Input parameters:
  background_charge: {charge: 6.0,
                      radius: 3.0}
  h: 0.16
  kpts: [1 1 1]
  mode: fd

Implicit solvation parameters:
Cavity:  EffectivePotentialCavity
  Surface Calculator: GradientSurface with 3 nn
  Volume Calculator: None
  EffectivePotentialCavity
    Potential: Power12Potential
      u0: 0.18eV
      pbc_cutoff: 1e-06
      tiny: 1e-10
    temperature: 298.15K
Dielectric:
  Type: LinearDielectric
  Solvent dielectric constant: 78.36
Interaction: SurfaceInteraction
  subscript: surf
  Surface_tension: 0.0011484376791625194 eV/(Angstrom^2)

System changes: positions, numbers, cell, pbc, initial_charges, initial_magmoms 

Initialize ...

species:
  Zn:
    name: Zinc
    id: 5ebf863f442df07f995a1d0f0e5f6815
    Z: 30.0
    valence: 12
    core: 18
    charge: 0.0
    file: /home/vi/miniconda3/envs/gpaw24/share/gpaw/Zn.LDA.gz
    compensation charges: {type: gauss,
                           rc: 0.37,
                           lmax: 2}
    cutoffs: {filter: 2.14,
              core: 2.28}
    projectors:
      #              energy  rcut
      - 4s(2.00)    -6.218   1.286
      - 4p(0.00)    -1.230   1.270
      - 3d(10.00)   -10.426   1.180
      -  s          20.994   1.286
      -  p          25.981   1.270
      -  d          16.786   1.180
  
    # Using partial waves for Zn as LCAO basis

  O:
    name: Oxygen
    id: 9b9d51c344dea68c822856295a461509
    Z: 8.0
    valence: 6
    core: 2
    charge: 0.0
    file: /home/vi/miniconda3/envs/gpaw24/share/gpaw/O.LDA.gz
    compensation charges: {type: gauss,
                           rc: 0.21,
                           lmax: 2}
    cutoffs: {filter: 1.17,
              core: 0.83}
    projectors:
      #              energy  rcut
      - 2s(2.00)   -23.752   0.688
      - 2p(4.00)    -9.195   0.598
      -  s           3.459   0.688
      -  p          18.016   0.598
      -  d           0.000   0.619
  
    # Using partial waves for O as LCAO basis

  C:
    name: Carbon
    id: d60576a1f549371a163e72552ca58787
    Z: 6.0
    valence: 4
    core: 2
    charge: 0.0
    file: /home/vi/miniconda3/envs/gpaw24/share/gpaw/C.LDA.gz
    compensation charges: {type: gauss,
                           rc: 0.20,
                           lmax: 2}
    cutoffs: {filter: 1.14,
              core: 1.14}
    projectors:
      #              energy  rcut
      - 2s(2.00)   -13.639   0.635
      - 2p(2.00)    -5.414   0.635
      -  s          13.573   0.635
      -  p          21.797   0.635
      -  d           0.000   0.635
  
    # Using partial waves for C as LCAO basis

Reference energy: -365848.464770  # eV

Spin-paired calculation

Convergence criteria:
 Maximum [total energy] change in last 3 cyles: 0.0005 eV / valence electron
 Maximum integral of absolute [dens]ity change: 0.0001 electrons / valence electron
 Maximum integral of absolute [eigenst]ate change: 4e-08 eV^2 / valence electron
 Maximum number of scf [iter]ations: 333
 (Square brackets indicate name in SCF output, whereas a 'c' in
 the SCF output indicates the quantity has converged.)

Symmetries present (total): 2

  ( 1  0  0)  ( 1  0  0)
  ( 0  1  0)  ( 0  1  0)
  ( 0  0  1)  ( 0  0 -1)

1 k-point (Gamma)
1 k-point in the irreducible part of the Brillouin zone
       k-points in crystal coordinates                weights
   0:     0.00000000    0.00000000    0.00000000          1/1

Wave functions: Uniform real-space grid
  Kinetic energy operator: 8*3+1=25 point O(h^6) finite-difference Laplacian
  ScaLapack parameters: grid=1x1, blocksize=None
  Wavefunction extrapolation:
    Improved wavefunction reuse through dual PAW basis 

Occupation numbers: Fermi-Dirac:
  width: 0.1000  # eV
 

Eigensolver
   Davidson(niter=2) 

Densities:
  Coarse grid: 72*72*44 grid
  Fine grid: 144*144*88 grid
  Total Charge: 0.000000 

Density mixing:
  Method: separate
  Backend: pulay
  Linear mixing parameter: 0.05
  old densities: 5
  Damping of long wavelength oscillations: 50 

Hamiltonian:
  XC and Coulomb potentials evaluated on a 144*144*88 grid
  Using the LDA Exchange-Correlation functional
  Interpolation: tri-quintic (5. degree polynomial)
  Poisson solver: Jacobi weighted FD solver with dielectric and 4 multi-grid levels
    Coarsest grid: 18 x 18 x 11 points
    Stencil: Weighted Finite Difference Operator
      8*3+1=25 point O(h^6) finite-difference Laplacian
      Finite-difference x-derivative with O(h^6) error (18 points)
      Finite-difference y-derivative with O(h^6) error (12 points)
      Finite-difference z-derivative with O(h^6) error (6 points)
    Max iterations: 1000
    Tolerance: 2.000000e-10

  Solvation:
    Cavity:  EffectivePotentialCavity
      Surface Calculator: GradientSurface with 3 nn
      Volume Calculator: None
      EffectivePotentialCavity
        Potential: Power12Potential
          u0: 0.18eV
          pbc_cutoff: 1e-06
          tiny: 1e-10
        temperature: 298.15K    Dielectric:
      Type: LinearDielectric
      Solvent dielectric constant: 78.36    Interaction: SurfaceInteraction
      subscript: surf
      Surface_tension: 0.0011484376791625194 eV/(Angstrom^2)
Memory estimate:
  Process memory now: 153.26 MiB
  Calculator: 329.97 MiB
    Density: 43.16 MiB
      Arrays: 11.31 MiB
      Localized functions: 27.50 MiB
      Mixer: 4.35 MiB
    Hamiltonian: 108.20 MiB
      Arrays: 7.40 MiB
      XC: 0.00 MiB
      Poisson: 8.43 MiB
      vbar: 1.88 MiB
      Solvation: 90.49 MiB
    Wavefunctions: 178.61 MiB
      Arrays psit_nG: 84.84 MiB
      Eigensolver: 89.92 MiB
      Projections: 0.27 MiB
      Projectors: 3.58 MiB

Total number of cores used: 4
Domain decomposition: 2 x 2 x 1

Number of atoms: 54
Number of atomic orbitals: 246
Number of bands in calculation: 195
Number of valence electrons: 318.0
Bands to converge: occupied

... initialized

Initializing position-dependent things.

Solvation position-dependent initialization:
  Atomic radii for Power12Potential:
    Type    Radius   No. of atoms
      Zn     1.390     6
       C     1.900     24
       O     2.020     24

Density initialized from atomic densities
Creating initial wave functions:
  195 bands from LCAO basis set

                                                                    
                                                                    
                                                                    
                                                                    
                C   C          O      O                             
              C      C  O                  O                        
               C  CO                         O                      
                                               Zn                   
                 O  C      Zn  O      O    O                        
              C      C  O                  OC  C                    
               C   O                  O  C      C                   
                   O    O      O   Zn     C  OC     Zn              
               ZnO                         O                        
                                            C   C                   
                   O                  O   C      C                  
                    Zn  O      O           C  C                     
                                                                    
                                                                    
                                                                    
                                                                    

Positions:
   0 Zn    -3.311508    5.745389    0.000000    ( 0.0000,  0.0000,  0.0000)
   1 Zn     0.008798   11.475067    0.000000    ( 0.0000,  0.0000,  0.0000)
   2 Zn     0.000000    0.000000    0.000000    ( 0.0000,  0.0000,  0.0000)
   3 Zn     9.654686    6.016570    3.370287    ( 0.0000,  0.0000,  0.0000)
   4 Zn     6.356848    0.273894    3.370287    ( 0.0000,  0.0000,  0.0000)
   5 Zn    12.999812    0.283685    3.370287    ( 0.0000,  0.0000,  0.0000)
   6 O      8.636875    4.323401    0.000000    ( 0.0000,  0.0000,  0.0000)
   7 O      7.208602    1.838281    0.000000    ( 0.0000,  0.0000,  0.0000)
   8 O     -2.008673    4.314104    0.000000    ( 0.0000,  0.0000,  0.0000)
   9 O      1.901801   11.072128    0.000000    ( 0.0000,  0.0000,  0.0000)
  10 O     -0.587371    1.851830    0.000000    ( 0.0000,  0.0000,  0.0000)
  11 O      4.736624   11.078265    0.000000    ( 0.0000,  0.0000,  0.0000)
  12 O     -0.588016    9.632534    0.000000    ( 0.0000,  0.0000,  0.0000)
  13 O     -2.009198    7.180271    0.000000    ( 0.0000,  0.0000,  0.0000)
  14 O      4.750180    0.416167    0.000000    ( 0.0000,  0.0000,  0.0000)
  15 O      8.640642    7.175099    0.000000    ( 0.0000,  0.0000,  0.0000)
  16 O      1.891483    0.423327    0.000000    ( 0.0000,  0.0000,  0.0000)
  17 O      7.214543    9.643842    0.000000    ( 0.0000,  0.0000,  0.0000)
  18 O      8.355932    4.576195    3.370287    ( 0.0000,  0.0000,  0.0000)
  19 O      6.946570    2.119197    3.370287    ( 0.0000,  0.0000,  0.0000)
  20 O     -2.293397    4.593675    3.370287    ( 0.0000,  0.0000,  0.0000)
  21 O      1.617223   11.340988    3.370287    ( 0.0000,  0.0000,  0.0000)
  22 O     -0.855644    2.129080    3.370287    ( 0.0000,  0.0000,  0.0000)
  23 O      4.475674   11.345654    3.370287    ( 0.0000,  0.0000,  0.0000)
  24 O     -0.849537    9.910979    3.370287    ( 0.0000,  0.0000,  0.0000)
  25 O     -2.287952    7.434145    3.370287    ( 0.0000,  0.0000,  0.0000)
  26 O      4.466378    0.684119    3.370287    ( 0.0000,  0.0000,  0.0000)
  27 O      8.358060    7.452912    3.370287    ( 0.0000,  0.0000,  0.0000)
  28 O      1.631011    0.690440    3.370287    ( 0.0000,  0.0000,  0.0000)
  29 O      6.946177    9.922632    3.370287    ( 0.0000,  0.0000,  0.0000)
  30 C      9.214720    3.172675    0.000000    ( 0.0000,  0.0000,  0.0000)
  31 C      8.493745    1.919129    0.000000    ( 0.0000,  0.0000,  0.0000)
  32 C     10.670784    3.171457    0.000000    ( 0.0000,  0.0000,  0.0000)
  33 C      9.225882    0.661801    0.000000    ( 0.0000,  0.0000,  0.0000)
  34 C     11.395239    1.920726    0.000000    ( 0.0000,  0.0000,  0.0000)
  35 C     10.671073    0.663491    0.000000    ( 0.0000,  0.0000,  0.0000)
  36 C     -1.868814    9.573602    0.000000    ( 0.0000,  0.0000,  0.0000)
  37 C     -2.593849    8.321940    0.000000    ( 0.0000,  0.0000,  0.0000)
  38 C     -2.593767   10.833929    0.000000    ( 0.0000,  0.0000,  0.0000)
  39 C     -4.045548    8.324400    0.000000    ( 0.0000,  0.0000,  0.0000)
  40 C     -4.038793   10.837032    0.000000    ( 0.0000,  0.0000,  0.0000)
  41 C     -4.767868    9.576418    0.000000    ( 0.0000,  0.0000,  0.0000)
  42 C      8.946957    3.437019    3.370287    ( 0.0000,  0.0000,  0.0000)
  43 C      8.227654    2.183266    3.370287    ( 0.0000,  0.0000,  0.0000)
  44 C     10.398915    3.442087    3.370287    ( 0.0000,  0.0000,  0.0000)
  45 C      8.957230    0.925915    3.370287    ( 0.0000,  0.0000,  0.0000)
  46 C     11.127158    2.192724    3.370287    ( 0.0000,  0.0000,  0.0000)
  47 C     10.402389    0.929271    3.370287    ( 0.0000,  0.0000,  0.0000)
  48 C     -2.135741    9.836383    3.370287    ( 0.0000,  0.0000,  0.0000)
  49 C     -2.862255    8.587422    3.370287    ( 0.0000,  0.0000,  0.0000)
  50 C     -2.862326   11.097606    3.370287    ( 0.0000,  0.0000,  0.0000)
  51 C     -4.317934    8.593168    3.370287    ( 0.0000,  0.0000,  0.0000)
  52 C     -4.307750   11.101927    3.370287    ( 0.0000,  0.0000,  0.0000)
  53 C     -5.037276    9.848415    3.370287    ( 0.0000,  0.0000,  0.0000)

Unit cell:
           periodic     x           y           z      points  spacing
  1. axis:    yes   13.266613    0.000000    0.000000    72     0.1596
  2. axis:    yes   -6.633418   11.492202    0.000000    72     0.1596
  3. axis:    yes    0.000000    0.000000    6.740573    44     0.1532

  Lengths:  13.266613  13.269248   6.740573
  Angles:   90.000000  90.000000 119.993985

Effective grid spacing dv^(1/3) = 0.1652

     iter     time        total  log10-change:
                         energy   eigst   dens
iter:   1 10:38:17  -498.163281
iter:   2 10:38:40  -472.056770   +0.48  -0.88
iter:   3 10:39:04  -445.687081   +0.31  -0.94
iter:   4 10:39:28  -438.429382   +0.13  -1.07
iter:   5 10:39:51  -435.521376   -0.39  -1.19
iter:   6 10:40:14  -434.083385   -0.55  -1.29
iter:   7 10:40:37  -433.331175   -0.88  -1.43
iter:   8 10:40:58  -433.212156   -1.11  -1.69
iter:   9 10:41:29  -433.021360   -1.60  -1.83
iter:  10 10:41:44  -432.916238   -2.13  -1.97
iter:  11 10:42:02  -432.931778c  -1.90  -2.04
iter:  12 10:42:16  -432.795285c  -2.26  -2.12
iter:  13 10:42:29  -432.769256   -2.51  -2.34
iter:  14 10:42:44  -432.765970c  -2.67  -2.37
iter:  15 10:42:58  -432.763419c  -3.02  -2.44
iter:  16 10:43:15  -432.757041c  -2.94  -2.48
iter:  17 10:43:29  -432.758185c  -3.32  -2.67
iter:  18 10:43:43  -432.759706c  -3.91  -2.83
iter:  19 10:43:58  -432.756393c  -3.94  -2.94
iter:  20 10:44:11  -432.754817c  -4.38  -3.31
iter:  21 10:44:22  -432.754781c  -4.50  -3.53
iter:  22 10:44:33  -432.755894c  -5.07  -3.67
iter:  23 10:44:44  -432.755449c  -5.15  -3.81
iter:  24 10:44:54  -432.755438c  -5.52  -3.94
iter:  25 10:45:05  -432.755280c  -5.78  -4.03c
iter:  26 10:45:15  -432.755135c  -6.04  -4.25c
iter:  27 10:45:25  -432.755167c  -6.39  -4.37c
iter:  28 10:45:35  -432.755063c  -7.09  -4.45c
iter:  29 10:45:44  -432.754744c  -6.98  -4.49c
iter:  30 10:45:54  -432.755042c  -7.43c -4.77c

Converged after 30 iterations.

Dipole moment: (-5.948975, 33.145112, -56.379290) |e|*Ang

Energy contributions relative to reference atoms: (reference = -365848.464770)

Kinetic:       +606.638699
Potential:     -549.331725
External:        +0.000000
XC:            -502.419265
Entropy (-ST):   -0.394126
Local:          +12.386239
Interactions  
 surf:           +0.168073
--------------------------
Free energy:   -432.952105
Extrapolated:  -432.755042

Solvation cavity surface area: 146.34928
Solvation cavity volume: not calculated (no calculator defined)
 Band  Eigenvalues  Occupancy
    0    -23.72790    2.00000
    1    -23.50731    2.00000
    2    -23.37202    2.00000
    3    -22.81127    2.00000
    4    -21.71584    2.00000
    5    -21.61180    2.00000
    6    -21.58110    2.00000
    7    -21.49068    2.00000
    8    -21.46848    2.00000
    9    -21.39746    2.00000
   10    -21.35784    2.00000
   11    -21.28228    2.00000
   12    -20.98756    2.00000
   13    -20.91975    2.00000
   14    -20.87676    2.00000
   15    -20.79748    2.00000
   16    -20.51635    2.00000
   17    -20.44329    2.00000
   18    -20.42947    2.00000
   19    -20.35765    2.00000
   20    -20.11321    2.00000
   21    -20.09520    2.00000
   22    -20.01362    2.00000
   23    -19.97439    2.00000
   24    -15.40515    2.00000
   25    -15.25788    2.00000
   26    -15.16479    2.00000
   27    -15.02471    2.00000
   28    -12.89958    2.00000
   29    -12.72745    2.00000
   30    -12.60130    2.00000
   31    -12.43513    2.00000
   32    -12.30275    2.00000
   33    -12.24007    2.00000
   34    -12.13495    2.00000
   35    -12.05861    2.00000
   36    -10.74987    2.00000
   37    -10.59453    2.00000
   38    -10.46584    2.00000
   39    -10.41709    2.00000
   40    -10.28727    2.00000
   41    -10.26203    2.00000
   42    -10.11494    2.00000
   43     -9.93615    2.00000
   44     -9.62307    2.00000
   45     -9.50206    2.00000
   46     -9.18043    2.00000
   47     -9.12760    2.00000
   48     -9.06088    2.00000
   49     -8.99515    2.00000
   50     -8.78627    2.00000
   51     -8.70000    2.00000
   52     -8.57019    2.00000
   53     -8.50156    2.00000
   54     -8.30215    2.00000
   55     -8.18719    2.00000
   56     -7.90985    2.00000
   57     -7.84567    2.00000
   58     -7.82775    2.00000
   59     -7.79734    2.00000
   60     -7.76830    2.00000
   61     -7.70330    2.00000
   62     -7.70103    2.00000
   63     -7.68369    2.00000
   64     -7.53764    2.00000
   65     -7.39909    2.00000
   66     -7.30008    2.00000
   67     -7.24822    2.00000
   68     -7.21968    2.00000
   69     -7.18149    2.00000
   70     -7.17138    2.00000
   71     -6.92632    2.00000
   72     -6.91277    2.00000
   73     -6.86189    2.00000
   74     -6.84788    2.00000
   75     -6.78461    2.00000
   76     -6.75022    2.00000
   77     -6.72147    2.00000
   78     -6.63430    2.00000
   79     -6.59300    2.00000
   80     -6.55467    2.00000
   81     -6.53987    2.00000
   82     -6.45266    2.00000
   83     -6.43631    2.00000
   84     -6.39406    2.00000
   85     -6.19108    2.00000
   86     -6.13228    2.00000
   87     -6.09402    2.00000
   88     -6.07715    2.00000
   89     -6.05020    2.00000
   90     -6.01990    2.00000
   91     -5.99680    2.00000
   92     -5.98033    2.00000
   93     -5.93262    2.00000
   94     -5.77716    2.00000
   95     -5.77400    2.00000
   96     -5.72243    2.00000
   97     -5.71802    2.00000
   98     -5.58408    2.00000
   99     -5.52202    2.00000
  100     -5.48146    2.00000
  101     -5.44342    2.00000
  102     -5.43039    2.00000
  103     -5.36067    2.00000
  104     -5.31169    2.00000
  105     -5.18743    2.00000
  106     -5.07622    2.00000
  107     -5.04643    2.00000
  108     -5.02963    2.00000
  109     -5.01377    2.00000
  110     -4.90774    2.00000
  111     -4.90654    2.00000
  112     -4.81652    2.00000
  113     -4.74606    2.00000
  114     -4.71996    2.00000
  115     -4.71640    2.00000
  116     -4.65185    2.00000
  117     -4.60871    2.00000
  118     -4.35720    2.00000
  119     -4.15214    2.00000
  120     -4.11928    2.00000
  121     -4.03111    2.00000
  122     -3.90370    2.00000
  123     -3.75654    2.00000
  124     -3.75637    2.00000
  125     -3.61411    2.00000
  126     -3.52840    2.00000
  127     -3.41690    2.00000
  128     -3.37862    2.00000
  129     -3.11653    2.00000
  130     -3.10675    2.00000
  131     -3.05615    2.00000
  132     -2.98408    2.00000
  133     -2.96137    2.00000
  134     -2.90692    2.00000
  135     -2.78490    2.00000
  136     -2.75332    2.00000
  137     -2.67195    2.00000
  138     -2.62502    2.00000
  139     -2.53948    2.00000
  140     -2.50319    2.00000
  141     -2.37447    2.00000
  142     -2.22482    2.00000
  143     -2.18172    2.00000
  144     -2.09197    2.00000
  145     -1.70986    2.00000
  146     -1.59873    2.00000
  147     -1.57951    2.00000
  148     -1.22791    2.00000
  149     -1.13922    2.00000
  150     -1.06503    2.00000
  151     -1.02298    2.00000
  152     -0.79669    2.00000
  153     -0.66174    2.00000
  154     -0.30558    1.99998
  155     -0.18230    1.99992
  156      0.24962    1.99396
  157      0.29465    1.99054
  158      0.85389    0.87898
  159      0.87707    0.76686
  160      0.99461    0.32210
  161      1.22965    0.03594
  162      1.34468    0.01152
  163      1.74854    0.00020
  164      2.83510    0.00000
  165      3.26839    0.00000
  166      3.30498    0.00000
  167      3.61045    0.00000
  168      3.70746    0.00000
  169      3.71734    0.00000
  170      3.85120    0.00000
  171      3.94289    0.00000
  172      4.14413    0.00000
  173      4.19436    0.00000
  174      4.37598    0.00000
  175      4.49897    0.00000
  176      4.64854    0.00000
  177      4.81068    0.00000
  178      4.88392    0.00000
  179      4.92555    0.00000
  180      5.07918    0.00000
  181      5.16264    0.00000
  182      5.37505    0.00000
  183      5.56932    0.00000
  184      5.65684    0.00000
  185      5.90480    0.00000
  186      6.05105    0.00000
  187      6.14403    0.00000
  188      6.41226    0.00000
  189      6.60641    0.00000
  190      6.68724    0.00000
  191      6.82420    0.00000
  192      6.96223    0.00000
  193      7.43867    0.00000
  194      7.90050    0.00000

Fermi level: 0.82957

Gap: 0.559 eV
Transition (v -> c):
  (s=0, k=0, n=157, [[0.00, 0.00, 0.00]]) -> (s=0, k=0, n=158, [[0.00, 0.00, 0.00]])
No difference between direct/indirect transitions
Timing:                              incl.     excl.
-----------------------------------------------------------
Hamiltonian:                        55.987    34.404   6.4% |--|
 Atomic:                             0.105     0.009   0.0% |
  XC Correction:                     0.096     0.096   0.0% |
 Hartree integrate/restrict:         0.007     0.007   0.0% |
 Initialize Hamiltonian:             0.094     0.094   0.0% |
 Poisson:                           21.320    21.320   4.0% |-|
 XC 3D grid:                         0.054     0.054   0.0% |
 vbar:                               0.002     0.002   0.0% |
LCAO initialization:                 5.021     0.093   0.0% |
 LCAO eigensolver:                   1.222     0.000   0.0% |
  Calculate projections:             0.001     0.001   0.0% |
  DenseAtomicCorrection:             0.001     0.001   0.0% |
  Distribute overlap matrix:         0.706     0.706   0.1% |
  Orbital Layouts:                   0.010     0.010   0.0% |
  Potential matrix:                  0.503     0.503   0.1% |
 LCAO to grid:                       3.222     3.222   0.6% |
 Set positions (LCAO WFS):           0.485     0.285   0.1% |
  Basic WFS set positions:           0.001     0.001   0.0% |
  Basis functions set positions:     0.000     0.000   0.0% |
  P tci:                             0.071     0.071   0.0% |
  ST tci:                            0.101     0.101   0.0% |
  mktci:                             0.027     0.027   0.0% |
SCF-cycle:                         467.861     0.053   0.0% |
 Davidson:                         277.782    99.175  18.5% |------|
  Apply hamiltonian:                16.397    16.397   3.1% ||
  Subspace diag:                    38.225     0.004   0.0% |
   calc_h_matrix:                   23.304     8.196   1.5% ||
    Apply hamiltonian:              15.109    15.109   2.8% ||
   diagonalize:                      2.260     2.260   0.4% |
   rotate_psi:                      12.657    12.657   2.4% ||
  calc. matrices:                   93.631    61.899  11.5% |----|
   Apply hamiltonian:               31.732    31.732   5.9% |-|
  diagonalize:                       2.300     2.300   0.4% |
  rotate_psi:                       28.053    28.053   5.2% |-|
 Density:                            1.986     0.001   0.0% |
  Atomic density matrices:           0.151     0.151   0.0% |
  Mix:                               0.681     0.681   0.1% |
  Multipole moments:                 0.023     0.023   0.0% |
  Pseudo density:                    1.130     0.587   0.1% |
   Symmetrize density:               0.544     0.544   0.1% |
 Hamiltonian:                      186.260     0.702   0.1% |
  Atomic:                            3.947     1.349   0.3% |
   XC Correction:                    2.597     2.597   0.5% |
  Hartree integrate/restrict:        0.244     0.244   0.0% |
  Poisson:                         179.699   179.699  33.5% |------------|
  XC 3D grid:                        1.606     1.606   0.3% |
  vbar:                              0.062     0.062   0.0% |
 Orthonormalize:                     1.780     0.000   0.0% |
  calc_s_matrix:                     0.097     0.097   0.0% |
  inverse-cholesky:                  0.094     0.094   0.0% |
  projections:                       1.334     1.334   0.2% |
  rotate_psi_s:                      0.254     0.254   0.0% |
Set symmetry:                        0.001     0.001   0.0% |
Other:                               7.447     7.447   1.4% ||
-----------------------------------------------------------
Total:                                       536.317 100.0%

Memory usage: 1.22 GiB
Date: Thu Oct 31 10:46:01 2024
