
  ___ ___ ___ _ _ _  
 |   |   |_  | | | | 
 | | | | | . | | | | 
 |__ |  _|___|_____|  24.6.0
 |___|_|             

User:   vi@vi-clevo
Date:   Wed Oct 23 00:06:59 2024
Arch:   x86_64
Pid:    9226
CWD:    /mnt/c/Users/vi/Desktop/Jellium/Pore/MOF-Solvent
Python: 3.12.3
gpaw:   /home/vi/miniconda3/envs/gpaw24/lib/python3.12/site-packages/gpaw
_gpaw:  /home/vi/miniconda3/envs/gpaw24/lib/python3.12/site-packages/
        _gpaw.cpython-312-x86_64-linux-gnu.so
ase:    /home/vi/miniconda3/envs/gpaw24/lib/python3.12/site-packages/ase (version 3.23.0)
numpy:  /home/vi/miniconda3/envs/gpaw24/lib/python3.12/site-packages/numpy (version 1.26.4)
scipy:  /home/vi/miniconda3/envs/gpaw24/lib/python3.12/site-packages/scipy (version 1.13.1)
libxc:  6.2.2
units:  Angstrom and eV
cores: 1
OpenMP: True
OMP_NUM_THREADS: 1

Input parameters:
  h: 0.16
  kpts: [1 1 1]
  mode: fd

System changes: positions, numbers, cell, pbc, initial_charges, initial_magmoms 

Initialize ...

species:
  Zn:
    name: Zinc
    id: 5ebf863f442df07f995a1d0f0e5f6815
    Z: 30.0
    valence: 12
    core: 18
    charge: 0.0
    file: /home/vi/miniconda3/envs/gpaw24/share/gpaw/Zn.LDA.gz
    compensation charges: {type: gauss,
                           rc: 0.37,
                           lmax: 2}
    cutoffs: {filter: 2.14,
              core: 2.28}
    projectors:
      #              energy  rcut
      - 4s(2.00)    -6.218   1.286
      - 4p(0.00)    -1.230   1.270
      - 3d(10.00)   -10.426   1.180
      -  s          20.994   1.286
      -  p          25.981   1.270
      -  d          16.786   1.180
  
    # Using partial waves for Zn as LCAO basis

  O:
    name: Oxygen
    id: 9b9d51c344dea68c822856295a461509
    Z: 8.0
    valence: 6
    core: 2
    charge: 0.0
    file: /home/vi/miniconda3/envs/gpaw24/share/gpaw/O.LDA.gz
    compensation charges: {type: gauss,
                           rc: 0.21,
                           lmax: 2}
    cutoffs: {filter: 1.17,
              core: 0.83}
    projectors:
      #              energy  rcut
      - 2s(2.00)   -23.752   0.688
      - 2p(4.00)    -9.195   0.598
      -  s           3.459   0.688
      -  p          18.016   0.598
      -  d           0.000   0.619
  
    # Using partial waves for O as LCAO basis

  C:
    name: Carbon
    id: d60576a1f549371a163e72552ca58787
    Z: 6.0
    valence: 4
    core: 2
    charge: 0.0
    file: /home/vi/miniconda3/envs/gpaw24/share/gpaw/C.LDA.gz
    compensation charges: {type: gauss,
                           rc: 0.20,
                           lmax: 2}
    cutoffs: {filter: 1.14,
              core: 1.14}
    projectors:
      #              energy  rcut
      - 2s(2.00)   -13.639   0.635
      - 2p(2.00)    -5.414   0.635
      -  s          13.573   0.635
      -  p          21.797   0.635
      -  d           0.000   0.635
  
    # Using partial waves for C as LCAO basis

Reference energy: -365848.464770  # eV

Spin-paired calculation

Convergence criteria:
 Maximum [total energy] change in last 3 cyles: 0.0005 eV / valence electron
 Maximum integral of absolute [dens]ity change: 0.0001 electrons / valence electron
 Maximum integral of absolute [eigenst]ate change: 4e-08 eV^2 / valence electron
 Maximum number of scf [iter]ations: 333
 (Square brackets indicate name in SCF output, whereas a 'c' in
 the SCF output indicates the quantity has converged.)

Symmetries present (total): 2

  ( 1  0  0)  ( 1  0  0)
  ( 0  1  0)  ( 0  1  0)
  ( 0  0  1)  ( 0  0 -1)

1 k-point (Gamma)
1 k-point in the irreducible part of the Brillouin zone
       k-points in crystal coordinates                weights
   0:     0.00000000    0.00000000    0.00000000          1/1

Wave functions: Uniform real-space grid
  Kinetic energy operator: 8*3+1=25 point O(h^6) finite-difference Laplacian
  ScaLapack parameters: grid=1x1, blocksize=None
  Wavefunction extrapolation:
    Improved wavefunction reuse through dual PAW basis 

Occupation numbers: Fermi-Dirac:
  width: 0.1000  # eV
 

Eigensolver
   Davidson(niter=2) 

Densities:
  Coarse grid: 72*72*44 grid
  Fine grid: 144*144*88 grid
  Total Charge: 0.000000 

Density mixing:
  Method: separate
  Backend: pulay
  Linear mixing parameter: 0.05
  old densities: 5
  Damping of long wavelength oscillations: 50 

Hamiltonian:
  XC and Coulomb potentials evaluated on a 144*144*88 grid
  Using the LDA Exchange-Correlation functional
  Interpolation: tri-quintic (5. degree polynomial)
  Poisson solver: FastPoissonSolver using
    Stencil: 8*3+1=25 point O(h^6) finite-difference Laplacian
    FFT axes: [0, 1, 2]
    FST axes: []
 

Memory estimate:
  Process memory now: 323.16 MiB
  Calculator: 904.93 MiB
    Density: 172.66 MiB
      Arrays: 45.25 MiB
      Localized functions: 110.01 MiB
      Mixer: 17.40 MiB
    Hamiltonian: 37.11 MiB
      Arrays: 29.58 MiB
      XC: 0.00 MiB
      Poisson: 0.00 MiB
      vbar: 7.53 MiB
    Wavefunctions: 695.16 MiB
      Arrays psit_nG: 334.12 MiB
      Eigensolver: 345.64 MiB
      Projections: 1.07 MiB
      Projectors: 14.32 MiB

Total number of cores used: 1

Number of atoms: 54
Number of atomic orbitals: 246
Number of bands in calculation: 192
Number of valence electrons: 312
Bands to converge: occupied

... initialized

Initializing position-dependent things.

Density initialized from atomic densities
Creating initial wave functions:
  192 bands from LCAO basis set

                                                                    
                                                                    
                                                                    
                                                                    
                C   C          O      O                             
              C      C  O                  O                        
               C  CO                         O                      
                                               Zn                   
                 O  C      Zn  O      O    O                        
              C      C  O                  OC  C                    
               C   O                  O  C      C                   
                   O    O      O   Zn     C  OC     Zn              
               ZnO                         O                        
                                            C   C                   
                   O                  O   C      C                  
                    Zn  O      O           C  C                     
                                                                    
                                                                    
                                                                    
                                                                    

Positions:
   0 Zn    -3.311508    5.745389    0.000000    ( 0.0000,  0.0000,  0.0000)
   1 Zn     0.008798   11.475067    0.000000    ( 0.0000,  0.0000,  0.0000)
   2 Zn     0.000000    0.000000    0.000000    ( 0.0000,  0.0000,  0.0000)
   3 Zn     9.654686    6.016570    3.370287    ( 0.0000,  0.0000,  0.0000)
   4 Zn     6.356848    0.273894    3.370287    ( 0.0000,  0.0000,  0.0000)
   5 Zn    12.999812    0.283685    3.370287    ( 0.0000,  0.0000,  0.0000)
   6 O      8.636875    4.323401    0.000000    ( 0.0000,  0.0000,  0.0000)
   7 O      7.208602    1.838281    0.000000    ( 0.0000,  0.0000,  0.0000)
   8 O     -2.008673    4.314104    0.000000    ( 0.0000,  0.0000,  0.0000)
   9 O      1.901801   11.072128    0.000000    ( 0.0000,  0.0000,  0.0000)
  10 O     -0.587371    1.851830    0.000000    ( 0.0000,  0.0000,  0.0000)
  11 O      4.736624   11.078265    0.000000    ( 0.0000,  0.0000,  0.0000)
  12 O     -0.588016    9.632534    0.000000    ( 0.0000,  0.0000,  0.0000)
  13 O     -2.009198    7.180271    0.000000    ( 0.0000,  0.0000,  0.0000)
  14 O      4.750180    0.416167    0.000000    ( 0.0000,  0.0000,  0.0000)
  15 O      8.640642    7.175099    0.000000    ( 0.0000,  0.0000,  0.0000)
  16 O      1.891483    0.423327    0.000000    ( 0.0000,  0.0000,  0.0000)
  17 O      7.214543    9.643842    0.000000    ( 0.0000,  0.0000,  0.0000)
  18 O      8.355932    4.576195    3.370287    ( 0.0000,  0.0000,  0.0000)
  19 O      6.946570    2.119197    3.370287    ( 0.0000,  0.0000,  0.0000)
  20 O     -2.293397    4.593675    3.370287    ( 0.0000,  0.0000,  0.0000)
  21 O      1.617223   11.340988    3.370287    ( 0.0000,  0.0000,  0.0000)
  22 O     -0.855644    2.129080    3.370287    ( 0.0000,  0.0000,  0.0000)
  23 O      4.475674   11.345654    3.370287    ( 0.0000,  0.0000,  0.0000)
  24 O     -0.849537    9.910979    3.370287    ( 0.0000,  0.0000,  0.0000)
  25 O     -2.287952    7.434145    3.370287    ( 0.0000,  0.0000,  0.0000)
  26 O      4.466378    0.684119    3.370287    ( 0.0000,  0.0000,  0.0000)
  27 O      8.358060    7.452912    3.370287    ( 0.0000,  0.0000,  0.0000)
  28 O      1.631011    0.690440    3.370287    ( 0.0000,  0.0000,  0.0000)
  29 O      6.946177    9.922632    3.370287    ( 0.0000,  0.0000,  0.0000)
  30 C      9.214720    3.172675    0.000000    ( 0.0000,  0.0000,  0.0000)
  31 C      8.493745    1.919129    0.000000    ( 0.0000,  0.0000,  0.0000)
  32 C     10.670784    3.171457    0.000000    ( 0.0000,  0.0000,  0.0000)
  33 C      9.225882    0.661801    0.000000    ( 0.0000,  0.0000,  0.0000)
  34 C     11.395239    1.920726    0.000000    ( 0.0000,  0.0000,  0.0000)
  35 C     10.671073    0.663491    0.000000    ( 0.0000,  0.0000,  0.0000)
  36 C     -1.868814    9.573602    0.000000    ( 0.0000,  0.0000,  0.0000)
  37 C     -2.593849    8.321940    0.000000    ( 0.0000,  0.0000,  0.0000)
  38 C     -2.593767   10.833929    0.000000    ( 0.0000,  0.0000,  0.0000)
  39 C     -4.045548    8.324400    0.000000    ( 0.0000,  0.0000,  0.0000)
  40 C     -4.038793   10.837032    0.000000    ( 0.0000,  0.0000,  0.0000)
  41 C     -4.767868    9.576418    0.000000    ( 0.0000,  0.0000,  0.0000)
  42 C      8.946957    3.437019    3.370287    ( 0.0000,  0.0000,  0.0000)
  43 C      8.227654    2.183266    3.370287    ( 0.0000,  0.0000,  0.0000)
  44 C     10.398915    3.442087    3.370287    ( 0.0000,  0.0000,  0.0000)
  45 C      8.957230    0.925915    3.370287    ( 0.0000,  0.0000,  0.0000)
  46 C     11.127158    2.192724    3.370287    ( 0.0000,  0.0000,  0.0000)
  47 C     10.402389    0.929271    3.370287    ( 0.0000,  0.0000,  0.0000)
  48 C     -2.135741    9.836383    3.370287    ( 0.0000,  0.0000,  0.0000)
  49 C     -2.862255    8.587422    3.370287    ( 0.0000,  0.0000,  0.0000)
  50 C     -2.862326   11.097606    3.370287    ( 0.0000,  0.0000,  0.0000)
  51 C     -4.317934    8.593168    3.370287    ( 0.0000,  0.0000,  0.0000)
  52 C     -4.307750   11.101927    3.370287    ( 0.0000,  0.0000,  0.0000)
  53 C     -5.037276    9.848415    3.370287    ( 0.0000,  0.0000,  0.0000)

Unit cell:
           periodic     x           y           z      points  spacing
  1. axis:    yes   13.266613    0.000000    0.000000    72     0.1596
  2. axis:    yes   -6.633418   11.492202    0.000000    72     0.1596
  3. axis:    yes    0.000000    0.000000    6.740573    44     0.1532

  Lengths:  13.266613  13.269248   6.740573
  Angles:   90.000000  90.000000 119.993985

Effective grid spacing dv^(1/3) = 0.1652

     iter     time        total  log10-change:
                         energy   eigst   dens
iter:   1 00:07:25  -456.585474
iter:   2 00:07:35  -453.642505   +0.44  -0.94
iter:   3 00:07:44  -438.876357   +0.26  -0.97
iter:   4 00:07:53  -435.923124   -0.05  -1.20
iter:   5 00:08:03  -433.981584   -0.45  -1.33
iter:   6 00:08:12  -434.446352   -0.67  -1.62
iter:   7 00:08:21  -433.384674   -0.89  -1.70
iter:   8 00:08:31  -433.190324   -1.17  -1.95
iter:   9 00:08:40  -433.081088   -2.04  -2.32
iter:  10 00:08:49  -433.032310   -2.49  -2.35
iter:  11 00:08:59  -433.030762c  -2.60  -2.58
iter:  12 00:09:08  -433.025936c  -2.98  -2.63
iter:  13 00:09:18  -433.023035c  -3.09  -2.77
iter:  14 00:09:27  -433.023468c  -3.46  -3.04
iter:  15 00:09:37  -433.021658c  -4.00  -3.28
iter:  16 00:09:46  -433.020614c  -4.30  -3.43
iter:  17 00:09:56  -433.019980c  -4.22  -3.54
iter:  18 00:10:07  -433.020248c  -4.41  -3.83
iter:  19 00:10:18  -433.020031c  -5.44  -3.89
iter:  20 00:10:29  -433.019972c  -5.56  -4.00
iter:  21 00:10:45  -433.019985c  -6.17  -4.17c
iter:  22 00:10:57  -433.019983c  -5.94  -4.24c
iter:  23 00:11:09  -433.020004c  -6.45  -4.39c
iter:  24 00:11:19  -433.020011c  -6.45  -4.52c
iter:  25 00:11:30  -433.019999c  -7.10  -4.60c
iter:  26 00:11:41  -433.020005c  -6.86  -4.80c
iter:  27 00:11:51  -433.020006c  -7.54c -5.15c

Converged after 27 iterations.

Dipole moment: (-14.099214, 19.658649, -56.109760) |e|*Ang

Energy contributions relative to reference atoms: (reference = -365848.464770)

Kinetic:       +484.355004
Potential:     -494.579497
External:        +0.000000
XC:            -435.106139
Entropy (-ST):   -0.288115
Local:          +12.454684
SIC:             +0.000000
--------------------------
Free energy:   -433.164063
Extrapolated:  -433.020006

 Band  Eigenvalues  Occupancy
    0    -23.48528    2.00000
    1    -23.37828    2.00000
    2    -23.36277    2.00000
    3    -23.25980    2.00000
    4    -23.05380    2.00000
    5    -23.04875    2.00000
    6    -22.95592    2.00000
    7    -22.94957    2.00000
    8    -22.93283    2.00000
    9    -22.92814    2.00000
   10    -22.84113    2.00000
   11    -22.83305    2.00000
   12    -22.03893    2.00000
   13    -22.03626    2.00000
   14    -22.03106    2.00000
   15    -22.03044    2.00000
   16    -21.96584    2.00000
   17    -21.96278    2.00000
   18    -21.96116    2.00000
   19    -21.95947    2.00000
   20    -21.63542    2.00000
   21    -21.61321    2.00000
   22    -21.57247    2.00000
   23    -21.55579    2.00000
   24    -17.11522    2.00000
   25    -17.01937    2.00000
   26    -16.89405    2.00000
   27    -16.80484    2.00000
   28    -14.09599    2.00000
   29    -14.08764    2.00000
   30    -13.96197    2.00000
   31    -13.95298    2.00000
   32    -13.92007    2.00000
   33    -13.90082    2.00000
   34    -13.79201    2.00000
   35    -13.76866    2.00000
   36    -11.46519    2.00000
   37    -11.45480    2.00000
   38    -11.38066    2.00000
   39    -11.37024    2.00000
   40    -11.35276    2.00000
   41    -11.35169    2.00000
   42    -11.25329    2.00000
   43    -11.25199    2.00000
   44    -11.05993    2.00000
   45    -10.93315    2.00000
   46    -10.62193    2.00000
   47    -10.51818    2.00000
   48     -9.66613    2.00000
   49     -9.55524    2.00000
   50     -9.41761    2.00000
   51     -9.41465    2.00000
   52     -9.32620    2.00000
   53     -9.30242    2.00000
   54     -9.29752    2.00000
   55     -9.26604    2.00000
   56     -9.21068    2.00000
   57     -9.17771    2.00000
   58     -8.92103    2.00000
   59     -8.79525    2.00000
   60     -8.45370    2.00000
   61     -8.43750    2.00000
   62     -8.43655    2.00000
   63     -8.39531    2.00000
   64     -8.39404    2.00000
   65     -8.38125    2.00000
   66     -8.24165    2.00000
   67     -8.23294    2.00000
   68     -8.07578    2.00000
   69     -8.00428    2.00000
   70     -8.00396    2.00000
   71     -7.88660    2.00000
   72     -7.88016    2.00000
   73     -7.84944    2.00000
   74     -7.83576    2.00000
   75     -7.71900    2.00000
   76     -7.71896    2.00000
   77     -7.71646    2.00000
   78     -7.65026    2.00000
   79     -7.64609    2.00000
   80     -7.64017    2.00000
   81     -7.62595    2.00000
   82     -7.59856    2.00000
   83     -7.57945    2.00000
   84     -7.51110    2.00000
   85     -7.38145    2.00000
   86     -7.36542    2.00000
   87     -7.35944    2.00000
   88     -7.35065    2.00000
   89     -7.33642    2.00000
   90     -7.33567    2.00000
   91     -7.21901    2.00000
   92     -7.13628    2.00000
   93     -7.12296    2.00000
   94     -7.06608    2.00000
   95     -6.96791    2.00000
   96     -6.95230    2.00000
   97     -6.85733    2.00000
   98     -6.74899    2.00000
   99     -6.74418    2.00000
  100     -6.73478    2.00000
  101     -6.66902    2.00000
  102     -6.65252    2.00000
  103     -6.63292    2.00000
  104     -6.58990    2.00000
  105     -6.57065    2.00000
  106     -6.22955    2.00000
  107     -6.22267    2.00000
  108     -6.18086    2.00000
  109     -6.16546    2.00000
  110     -6.15966    2.00000
  111     -6.13630    2.00000
  112     -6.12183    2.00000
  113     -6.09882    2.00000
  114     -5.95178    2.00000
  115     -5.93509    2.00000
  116     -5.57808    2.00000
  117     -5.55374    2.00000
  118     -5.25450    2.00000
  119     -5.14780    2.00000
  120     -5.14089    2.00000
  121     -5.08217    2.00000
  122     -4.91848    2.00000
  123     -4.90395    2.00000
  124     -4.64899    2.00000
  125     -4.54120    2.00000
  126     -4.52618    2.00000
  127     -4.51965    2.00000
  128     -4.46047    2.00000
  129     -4.45468    2.00000
  130     -4.43517    2.00000
  131     -4.43158    2.00000
  132     -4.20368    2.00000
  133     -4.19937    2.00000
  134     -4.01935    2.00000
  135     -4.00731    2.00000
  136     -3.97183    2.00000
  137     -3.96096    2.00000
  138     -3.94274    2.00000
  139     -3.85477    2.00000
  140     -3.84437    2.00000
  141     -3.58923    2.00000
  142     -3.58478    2.00000
  143     -3.14592    2.00000
  144     -3.04550    2.00000
  145     -2.83247    2.00000
  146     -2.72169    1.99999
  147     -2.70822    1.99999
  148     -2.64800    1.99999
  149     -2.63958    1.99999
  150     -2.51791    1.99995
  151     -2.48979    1.99994
  152     -2.11582    1.99736
  153     -1.85918    1.96612
  154     -1.73645    1.88894
  155     -1.62540    1.69709
  156     -1.25972    0.25272
  157     -1.23195    0.19749
  158     -0.54498    0.00023
  159     -0.49651    0.00014
  160     -0.36968    0.00004
  161     -0.31548    0.00002
  162      1.50311    0.00000
  163      1.93919    0.00000
  164      1.95931    0.00000
  165      2.27796    0.00000
  166      2.28213    0.00000
  167      2.33170    0.00000
  168      2.37835    0.00000
  169      2.39807    0.00000
  170      2.60094    0.00000
  171      2.64470    0.00000
  172      3.15464    0.00000
  173      3.38561    0.00000
  174      3.39086    0.00000
  175      3.40152    0.00000
  176      3.40667    0.00000
  177      4.47516    0.00000
  178      4.53379    0.00000
  179      4.72181    0.00000
  180      4.73262    0.00000
  181      5.31902    0.00000
  182      5.37487    0.00000
  183      5.70956    0.00000
  184      5.80665    0.00000
  185      5.91919    0.00000
  186      5.93414    0.00000
  187      6.20515    0.00000
  188      6.27549    0.00000
  189      6.29819    0.00000
  190      6.64565    0.00000
  191      6.74035    0.00000

Fermi level: -1.45308

Gap: 0.366 eV
Transition (v -> c):
  (s=0, k=0, n=155, [[0.00, 0.00, 0.00]]) -> (s=0, k=0, n=156, [[0.00, 0.00, 0.00]])
No difference between direct/indirect transitions
Timing:                              incl.     excl.
-----------------------------------------------------------
Hamiltonian:                         0.352     0.000   0.0% |
 Atomic:                             0.137     0.001   0.0% |
  XC Correction:                     0.136     0.136   0.0% |
 Calculate atomic Hamiltonians:      0.012     0.012   0.0% |
 Communicate:                        0.000     0.000   0.0% |
 Hartree integrate/restrict:         0.010     0.010   0.0% |
 Initialize Hamiltonian:             0.000     0.000   0.0% |
 Poisson:                            0.135     0.008   0.0% |
  Communicate from 1D:               0.016     0.016   0.0% |
  Communicate from 2D:               0.010     0.010   0.0% |
  Communicate to 1D:                 0.011     0.011   0.0% |
  Communicate to 2D:                 0.028     0.028   0.0% |
  FFT 1D:                            0.016     0.016   0.0% |
  FFT 2D:                            0.047     0.047   0.0% |
 XC 3D grid:                         0.053     0.053   0.0% |
 vbar:                               0.006     0.006   0.0% |
LCAO initialization:                 8.952     0.045   0.0% |
 LCAO eigensolver:                   1.443     0.000   0.0% |
  Calculate projections:             0.002     0.002   0.0% |
  DenseAtomicCorrection:             0.015     0.015   0.0% |
  Distribute overlap matrix:         0.000     0.000   0.0% |
  Orbital Layouts:                   0.033     0.033   0.0% |
  Potential matrix:                  1.392     1.392   0.1% |
 LCAO to grid:                       7.106     7.106   0.7% |
 Set positions (LCAO WFS):           0.357     0.068   0.0% |
  Basic WFS set positions:           0.001     0.001   0.0% |
  Basis functions set positions:     0.000     0.000   0.0% |
  P tci:                             0.198     0.198   0.0% |
  ST tci:                            0.072     0.072   0.0% |
  mktci:                             0.019     0.019   0.0% |
SCF-cycle:                         281.121     0.038   0.0% |
 Davidson:                         262.909   111.173  11.0% |---|
  Apply hamiltonian:                17.228    17.228   1.7% ||
  Subspace diag:                    33.623     0.002   0.0% |
   calc_h_matrix:                   23.767     9.190   0.9% |
    Apply hamiltonian:              14.577    14.577   1.4% ||
   diagonalize:                      0.560     0.560   0.1% |
   rotate_psi:                       9.294     9.294   0.9% |
  calc. matrices:                   81.211    53.860   5.3% |-|
   Apply hamiltonian:               27.351    27.351   2.7% ||
  diagonalize:                       1.882     1.882   0.2% |
  rotate_psi:                       17.792    17.792   1.8% ||
 Density:                            4.188     0.001   0.0% |
  Atomic density matrices:           0.058     0.058   0.0% |
  Mix:                               1.820     1.820   0.2% |
  Multipole moments:                 0.010     0.010   0.0% |
  Pseudo density:                    2.300     2.025   0.2% |
   Symmetrize density:               0.274     0.274   0.0% |
 Hamiltonian:                       13.162     0.002   0.0% |
  Atomic:                            4.887     0.049   0.0% |
   XC Correction:                    4.838     4.838   0.5% |
  Calculate atomic Hamiltonians:     0.520     0.520   0.1% |
  Communicate:                       0.000     0.000   0.0% |
  Hartree integrate/restrict:        0.339     0.339   0.0% |
  Poisson:                           4.617     0.227   0.0% |
   Communicate from 1D:              0.551     0.551   0.1% |
   Communicate from 2D:              0.368     0.368   0.0% |
   Communicate to 1D:                0.317     0.317   0.0% |
   Communicate to 2D:                0.936     0.936   0.1% |
   FFT 1D:                           0.565     0.565   0.1% |
   FFT 2D:                           1.652     1.652   0.2% |
  XC 3D grid:                        2.581     2.581   0.3% |
  vbar:                              0.216     0.216   0.0% |
 Orthonormalize:                     0.823     0.000   0.0% |
  calc_s_matrix:                     0.154     0.154   0.0% |
  inverse-cholesky:                  0.068     0.068   0.0% |
  projections:                       0.379     0.379   0.0% |
  rotate_psi_s:                      0.223     0.223   0.0% |
Set symmetry:                        0.000     0.000   0.0% |
Other:                             719.024   719.024  71.2% |---------------------------|
-----------------------------------------------------------
Total:                                      1009.449 100.0%

Date: Wed Oct 23 00:23:49 2024
