
  ___ ___ ___ _ _ _  
 |   |   |_  | | | | 
 | | | | | . | | | | 
 |__ |  _|___|_____|  24.1.0
 |___|_|             

User:   vi@vi-clevo
Date:   Sat Sep 14 15:15:56 2024
Arch:   x86_64
Pid:    81062
CWD:    /mnt/c/Users/vi/Desktop/Jellium/Au-SJM
Python: 3.12.3
gpaw:   /home/vi/miniconda3/envs/gpaw24/lib/python3.12/site-packages/gpaw
_gpaw:  /home/vi/miniconda3/envs/gpaw24/lib/python3.12/site-packages/
        _gpaw.cpython-312-x86_64-linux-gnu.so
ase:    /home/vi/miniconda3/envs/gpaw24/lib/python3.12/site-packages/ase (version 3.23.0)
numpy:  /home/vi/miniconda3/envs/gpaw24/lib/python3.12/site-packages/numpy (version 1.26.4)
scipy:  /home/vi/miniconda3/envs/gpaw24/lib/python3.12/site-packages/scipy (version 1.13.1)
libxc:  6.2.2
units:  Angstrom and eV
cores: 1
OpenMP: True
OMP_NUM_THREADS: 1

Input parameters:
  convergence: {density: 0.0001}
  kpts: [4 4 1]
  mode: fd
  xc: PBE

Non-default Solvated Jellium parameters:
  excess_electrons: 0.2
  grand_output: False
  jelliumregion: {bottom: 8.355589098293674,
                  top: 11.355589098293674}

Implicit solvation parameters:
Cavity:  EffectivePotentialCavity
  Surface Calculator: GradientSurface with 3 nn
  Volume Calculator: None
  EffectivePotentialCavity
    Potential: Power12Potential
      u0: 0.18eV
      pbc_cutoff: 1e-06
      tiny: 1e-10
    temperature: 298.15K
Dielectric:
  Type: LinearDielectric
  Solvent dielectric constant: 78.36
Interaction: SurfaceInteraction
  subscript: surf
  Surface_tension: 0.0011484376791625194 eV/(Angstrom^2)

Solvated jellium method (SJM) calculation:
Constant-charge calculation with 0.20000 excess electrons
Jellium counter-charge defined with:
 Bottom:   8.356 AA
 Top:  11.356 AA
 Charge: 0.2000

Input parameters:
  background_charge: {charge: 0.2,
                      z1: 8.355589098293674,
                      z2: 11.355589098293674}

System changes: positions, numbers, cell, pbc, initial_charges, initial_magmoms 

Initialize ...

species:
  Au:
    name: Gold
    id: b12133f335f6ca0d89c4b1ccaa844e9a
    Z: 79.0
    valence: 11
    core: 68
    charge: 0.0
    file: /home/vi/miniconda3/envs/gpaw24/share/gpaw/Au.PBE.gz
    compensation charges: {type: gauss,
                           rc: 0.42,
                           lmax: 2}
    cutoffs: {filter: 2.33,
              core: 2.81}
    valence states:
      #              energy  rcut
      - 6s(1.00)    -5.728   1.323
      - 6p(0.00)    -0.775   1.323
      - 5d(10.00)    -6.891   1.323
      -  s          21.484   1.323
      -  p          26.436   1.323
      -  d          20.321   1.323
  
    # Using partial waves for Au as LCAO basis

Reference energy: -4132786.168874  # eV

Spin-paired calculation

Convergence criteria:
 Maximum [total energy] change in last 3 cyles: 0.0005 eV / valence electron
 Maximum integral of absolute [dens]ity change: 0.0001 electrons / valence electron
 Maximum integral of absolute [eigenst]ate change: 4e-08 eV^2 / valence electron
 Maximum change in the last 3 work functions [wkfxn]: 0.001 eV
 Maximum number of scf [iter]ations: 333
 (Square brackets indicate name in SCF output, whereas a 'c' in
 the SCF output indicates the quantity has converged.)

Symmetries present (total): 6

  ( 1  0  0)  ( 1 -1  0)  ( 0  1  0)  ( 0 -1  0)  (-1  1  0)  (-1  0  0)
  ( 0  1  0)  ( 0 -1  0)  ( 1  0  0)  ( 1 -1  0)  (-1  0  0)  (-1  1  0)
  ( 0  0  1)  ( 0  0  1)  ( 0  0  1)  ( 0  0  1)  ( 0  0  1)  ( 0  0  1)
Note: your k-points are not as symmetric as your crystal!

16 k-points: 4 x 4 x 1 Monkhorst-Pack grid
6 k-points in the irreducible part of the Brillouin zone
       k-points in crystal coordinates                weights
   0:     0.12500000   -0.12500000    0.00000000          2/16
   1:     0.12500000    0.12500000    0.00000000          2/16
   2:     0.37500000   -0.37500000    0.00000000          2/16
   3:     0.37500000   -0.12500000    0.00000000          4/16
   4:     0.37500000    0.12500000    0.00000000          4/16
   5:     0.37500000    0.37500000    0.00000000          2/16

Wave functions: Uniform real-space grid
  Kinetic energy operator: 8*3+1=25 point O(h^6) finite-difference Laplacian
  ScaLapack parameters: grid=1x1, blocksize=None
  Wavefunction extrapolation:
    Improved wavefunction reuse through dual PAW basis 

Occupation numbers: Fermi-Dirac:
  width: 0.1000  # eV
 

Eigensolver
   Davidson(niter=2) 

Densities:
  Coarse grid: 24*24*72 grid
  Fine grid: 48*48*144 grid
  Total Charge: 0.000000 

Density mixing:
  Method: separate
  Backend: pulay
  Linear mixing parameter: 0.05
  old densities: 5
  Damping of long wavelength oscillations: 50 

XC parameters: PBE with 2 nearest neighbor stencil

Memory estimate:
  Process memory now: 132.72 MiB
  Calculator: 384.58 MiB
    Density: 46.02 MiB
      Arrays: 8.17 MiB
      Localized functions: 34.73 MiB
      Mixer: 3.12 MiB
    Hamiltonian: 79.38 MiB
      Arrays: 5.34 MiB
      XC: 0.00 MiB
      Poisson: 6.10 MiB
      vbar: 2.59 MiB
      Solvation: 65.36 MiB
    Wavefunctions: 259.17 MiB
      Arrays psit_nG: 213.42 MiB
      Eigensolver: 39.19 MiB
      Projections: 0.75 MiB
      Projectors: 5.82 MiB

Total number of cores used: 1

Number of atoms: 8
Number of atomic orbitals: 72
Number of bands in calculation: 57
Number of valence electrons: 88.2
Bands to converge: occupied

... initialized

Initializing position-dependent things.

Solvation position-dependent initialization:
  Atomic radii for Power12Potential:
    Type    Radius   No. of atoms
      Au     1.660     8

Density initialized from atomic densities
Creating initial wave functions:
  57 bands from LCAO basis set

                             
                             
                             
                             
                             
            Au     Au        
       Au     Au             
             Au     Au       
        Au     Au            
                             
                             
                             
                             
                             

Positions:
   0 Au    -0.000000    1.665653    3.000000    ( 0.0000,  0.0000,  0.0000)
   1 Au     2.884996    1.665653    3.000000    ( 0.0000,  0.0000,  0.0000)
   2 Au     1.442498    4.164133    3.000000    ( 0.0000,  0.0000,  0.0000)
   3 Au     4.327494    4.164133    3.000000    ( 0.0000,  0.0000,  0.0000)
   4 Au     0.000000    0.000000    5.355589    ( 0.0000,  0.0000,  0.0000)
   5 Au     2.884996    0.000000    5.355589    ( 0.0000,  0.0000,  0.0000)
   6 Au     1.442498    2.498480    5.355589    ( 0.0000,  0.0000,  0.0000)
   7 Au     4.327494    2.498480    5.355589    ( 0.0000,  0.0000,  0.0000)

Unit cell:
           periodic     x           y           z      points  spacing
  1. axis:    yes    5.769991    0.000000    0.000000    24     0.2082
  2. axis:    yes    2.884996    4.996959    0.000000    24     0.2082
  3. axis:    no     0.000000    0.000000   14.355589    72     0.1994

  Lengths:   5.769991   5.769991  14.355589
  Angles:   90.000000  90.000000  60.000000

Effective grid spacing dv^(1/3) = 0.2153

     iter     time        total  log10-change:
                         energy   eigst   dens  wkfxn
iter:   1 15:16:07   -27.044181
iter:   2 15:16:16   -26.298408   -0.79  -1.31
iter:   3 15:16:24   -25.366276   -1.28  -1.36  +0.15
iter:   4 15:16:33   -24.529203   -0.94  -1.48  +0.19
iter:   5 15:16:41   -24.538269   -1.74  -1.82  -0.01
iter:   6 15:16:51   -24.476987   -1.76  -1.86  -0.44
iter:   7 15:17:01   -24.499068   -1.97  -2.05  -0.44
iter:   8 15:17:08   -24.514359c  -2.60  -2.26  -0.40
iter:   9 15:17:17   -24.479830c  -1.87  -2.24  -0.51
iter:  10 15:17:26   -24.466907   -2.46  -2.33  -0.51
iter:  11 15:17:34   -24.461246c  -3.45  -2.82  -0.69
iter:  12 15:17:44   -24.461143c  -3.82  -3.39  -1.16
iter:  13 15:17:51   -24.461037c  -3.88  -3.47  -1.56
iter:  14 15:17:58   -24.461325c  -4.37  -3.16  -1.71
iter:  15 15:18:05   -24.461294c  -4.77  -3.27  -1.85
iter:  16 15:18:15   -24.461584c  -4.52  -3.43  -1.71
iter:  17 15:18:21   -24.461588c  -5.49  -3.77  -1.86
iter:  18 15:18:28   -24.461643c  -5.95  -3.74  -2.95
iter:  19 15:18:35   -24.461428c  -6.29  -3.74  -2.72
iter:  20 15:18:42   -24.461031c  -5.08  -3.77  -2.08
iter:  21 15:18:49   -24.461257c  -6.34  -4.21c -2.20
iter:  22 15:18:55   -24.461260c  -6.93  -4.26c -2.94
iter:  23 15:19:02   -24.460827c  -7.06  -4.32c -3.00c
iter:  24 15:19:09   -24.461387c  -7.27  -4.43c -2.93
iter:  25 15:19:18   -24.461172c  -6.40  -4.54c -2.51
iter:  26 15:19:25   -24.461113c  -7.37  -4.21c -2.51
iter:  27 15:19:33   -24.461086c  -6.87  -4.28c -2.64
iter:  28 15:19:40   -24.461432c  -7.66c -4.52c -2.82
iter:  29 15:19:48   -24.461405c  -7.47c -4.53c -3.24c

Converged after 29 iterations.

Dipole moment: (9.285699, 5.361101, 0.742914) |e|*Ang

Energy contributions relative to reference atoms: (reference = -4132786.168874)

Kinetic:        -77.965680
Potential:      +61.719052
External:        +0.000000
XC:              -9.750595
Entropy (-ST):   -0.078583
Local:           +1.503065
Interactions  
 surf:           +0.072043
--------------------------
Free energy:    -24.500697
Extrapolated:   -24.461405

Dipole-layer corrected work functions: 4.233499, 4.291949 eV

Solvation cavity surface area: 62.73158
Solvation cavity volume: not calculated (no calculator defined)

Legendre-transformed energies (grand potential, Omega = E - N mu)
 N (excess electrons):    +0.200000
 mu (workfunction, eV):   +4.291949
 (Grand) free energy:    -23.642307
 (Grand) extrapolated:   -23.603016

Showing only first 2 kpts
 Kpt  Band  Eigenvalues  Occupancy
  0    42     -4.71348    1.97819
  0    43     -4.71348    1.97819
  0    44     -2.67870    0.00000
  0    45     -2.62597    0.00000

  1    42     -4.42484    1.66992
  1    43     -3.36908    0.00026
  1    44     -3.36908    0.00026
  1    45     -3.16073    0.00003


Fermi level: -4.26272

Potential found to be 4.29195 V (with +0.20000 electrons)
Canonical energy was written into results.

Writing to Au_sjm.gpw (mode='all')

Timing:                              incl.     excl.
-----------------------------------------------------------
Hamiltonian:                         4.249     0.510   0.2% |
 Atomic:                             0.178     0.001   0.0% |
  XC Correction:                     0.177     0.177   0.1% |
 Hartree integrate/restrict:         0.003     0.003   0.0% |
 Initialize Hamiltonian:             0.019     0.019   0.0% |
 Poisson:                            3.448     3.448   1.5% ||
 XC 3D grid:                         0.091     0.091   0.0% |
 vbar:                               0.001     0.001   0.0% |
LCAO initialization:                 0.571     0.012   0.0% |
 LCAO eigensolver:                   0.168     0.000   0.0% |
  Calculate projections:             0.001     0.001   0.0% |
  DenseAtomicCorrection:             0.002     0.002   0.0% |
  Distribute overlap matrix:         0.000     0.000   0.0% |
  Orbital Layouts:                   0.024     0.024   0.0% |
  Potential matrix:                  0.129     0.129   0.1% |
  Sum over cells:                    0.011     0.011   0.0% |
 LCAO to grid:                       0.324     0.324   0.1% |
 Set positions (LCAO WFS):           0.067     0.014   0.0% |
  Basic WFS set positions:           0.000     0.000   0.0% |
  Basis functions set positions:     0.000     0.000   0.0% |
  P tci:                             0.037     0.037   0.0% |
  ST tci:                            0.012     0.012   0.0% |
  mktci:                             0.003     0.003   0.0% |
SCF-cycle:                         226.487     0.110   0.0% |
 Davidson:                         185.148    83.461  35.7% |-------------|
  Apply hamiltonian:                15.146    15.146   6.5% |--|
  Subspace diag:                    22.427     0.022   0.0% |
   calc_h_matrix:                   17.750     3.608   1.5% ||
    Apply hamiltonian:              14.142    14.142   6.1% |-|
   diagonalize:                      0.208     0.208   0.1% |
   rotate_psi:                       4.448     4.448   1.9% ||
  calc. matrices:                   50.484    35.884  15.4% |-----|
   Apply hamiltonian:               14.600    14.600   6.2% |-|
  diagonalize:                       5.700     5.700   2.4% ||
  rotate_psi:                        7.929     7.929   3.4% ||
 Density:                            1.549     0.001   0.0% |
  Atomic density matrices:           0.085     0.085   0.0% |
  Mix:                               0.478     0.478   0.2% |
  Multipole moments:                 0.006     0.006   0.0% |
  Pseudo density:                    0.979     0.837   0.4% |
   Symmetrize density:               0.141     0.141   0.1% |
 Hamiltonian:                       38.885     0.240   0.1% |
  Atomic:                            5.869     0.023   0.0% |
   XC Correction:                    5.846     5.846   2.5% ||
  Hartree integrate/restrict:        0.084     0.084   0.0% |
  Poisson:                          30.330    30.330  13.0% |----|
  XC 3D grid:                        2.316     2.316   1.0% |
  vbar:                              0.047     0.047   0.0% |
 Orthonormalize:                     0.794     0.001   0.0% |
  calc_s_matrix:                     0.084     0.084   0.0% |
  inverse-cholesky:                  0.003     0.003   0.0% |
  projections:                       0.633     0.633   0.3% |
  rotate_psi_s:                      0.073     0.073   0.0% |
Set symmetry:                        0.003     0.003   0.0% |
Other:                               2.410     2.410   1.0% |
-----------------------------------------------------------
Total:                                       233.720 100.0%

Memory usage: 599.65 MiB
Date: Sat Sep 14 15:19:50 2024
